# vtk DataFile Version 2.0
generated by legacy_vtk_writer ver.1.2.2
ASCII
DATASET UNSTRUCTURED_GRID
POINTS           33 float
  0.100000E+01   -0.100000E+01    0.100000E+01
  0.000000E+00   -0.100000E+01    0.100000E+01
  0.500000E+00   -0.100000E+01    0.100000E+01
  0.139005E+00   -0.873857E+00    0.860888E+00
  0.000000E+00   -0.500000E+00    0.100000E+01
  0.000000E+00    0.000000E+00    0.100000E+01
  0.100000E+01   -0.100000E+01    0.500000E+00
  0.100000E+01   -0.100000E+01    0.000000E+00
  0.100000E+01   -0.500000E+00    0.100000E+01
  0.100000E+01    0.000000E+00    0.100000E+01
  0.500000E+00   -0.100000E+01    0.500000E+00
  0.000000E+00   -0.100000E+01    0.500000E+00
  0.100000E+01   -0.500000E+00    0.500000E+00
  0.000000E+00   -0.500000E+00    0.500000E+00
  0.000000E+00   -0.100000E+01    0.000000E+00
  0.500000E+00   -0.458333E+00    0.100000E+01
  0.500000E+00    0.000000E+00    0.100000E+01
  0.500000E+00   -0.100000E+01    0.000000E+00
  0.000000E+00    0.000000E+00    0.500000E+00
  0.000000E+00   -0.500000E+00    0.000000E+00
  0.100000E+01   -0.500000E+00    0.000000E+00
  0.100000E+01    0.000000E+00    0.500000E+00
  0.455357E+00   -0.452753E+00    0.343750E+00
  0.500000E+00    0.000000E+00    0.500000E+00
  0.500000E+00   -0.458333E+00    0.000000E+00
  0.000000E+00    0.000000E+00    0.000000E+00
  0.100000E+01    0.000000E+00    0.000000E+00
  0.500000E+00    0.000000E+00    0.000000E+00
  0.500000E+00    0.000000E+00    0.750000E+00
  0.500000E+00    0.000000E+00    0.250000E+00
  0.500000E+00   -0.729167E+00    0.000000E+00
  0.250000E+00   -0.100000E+01    0.750000E+00
  0.250000E+00   -0.229167E+00    0.100000E+01

CELLS 63 315
4 18 16 5 32
4 23 18 15 28
4 4 15 18 32
4 18 23 15 22
4 21 15 16 28
4 15 4 18 13
4 15 22 23 21
4 23 22 18 25
4 18 22 15 13
4 15 21 16 9
4 4 13 15 11
4 23 21 22 26
4 22 21 15 12
4 27 25 22 29
4 18 25 22 19
4 22 13 18 19
4 15 13 22 11
4 21 9 15 8
4 4 11 15 3
4 22 26 21 20
4 27 22 26 29
4 15 12 21 8
4 21 12 22 20
4 22 12 15 10
4 25 27 22 24
4 22 19 25 24
4 13 19 22 11
4 15 11 22 10
4 15 3 11 10
4 11 3 4 1
4 4 3 15 2
4 26 20 22 24
4 22 27 26 24
4 12 8 15 10
4 22 20 12 10
4 17 19 22 30
4 22 11 19 14
4 22 10 11 14
4 1 11 3 31
4 3 10 15 2
4 4 1 3 2
4 17 22 20 30
4 15 10 8 2
4 8 10 12 6
4 12 10 20 6
4 20 10 22 17
4 19 17 22 14
4 10 14 22 17
4 2 3 10 31
4 8 2 10 6
4 20 6 10 7
4 10 17 20 7
4 2 6 8 0
4 15 18 16 28
4 21 23 15 28
4 23 26 22 29
4 22 25 23 29
4 22 24 20 30
4 19 24 22 30
4 2 1 3 31
4 11 10 3 31
4 18 15 16 32
4 4 18 5 32

CELL_TYPES          63
  10
  10
  10
  10
  10
  10
  10
  10
  10
  10
  10
  10
  10
  10
  10
  10
  10
  10
  10
  10
  10
  10
  10
  10
  10
  10
  10
  10
  10
  10
  10
  10
  10
  10
  10
  10
  10
  10
  10
  10
  10
  10
  10
  10
  10
  10
  10
  10
  10
  10
  10
  10
  10
  10
  10
  10
  10
  10
  10
  10
  10
  10
  10

CELL_DATA        63
SCALARS pressure float 1 
LOOKUP_TABLE default
0.0
0.0
0.0
0.0
0.0
0.0
0.0
0.0
0.0
0.0
0.0
0.0
0.0
0.0
0.0
0.0
0.0
0.0
0.0
0.0
0.0
0.0
0.0
0.0
0.0
0.0
0.0
0.0
0.0
0.0
0.0
0.0
0.0
0.0
0.0
0.0
0.0
0.0
0.0
0.0
0.0
0.0
0.0
0.0
0.0
0.0
0.0
0.0
0.0
0.0
0.0
0.0
0.0
0.0
0.0
0.0
0.0
0.0
0.0
0.0
0.0
0.0
0.0
VECTORS vectors float
0.0 0.0 0.0
0.0 0.0 0.0
0.0 0.0 0.0
0.0 0.0 0.0
0.0 0.0 0.0
0.0 0.0 0.0
0.0 0.0 0.0
0.0 0.0 0.0
0.0 0.0 0.0
0.0 0.0 0.0
0.0 0.0 0.0
0.0 0.0 0.0
0.0 0.0 0.0
0.0 0.0 0.0
0.0 0.0 0.0
0.0 0.0 0.0
0.0 0.0 0.0
0.0 0.0 0.0
0.0 0.0 0.0
0.0 0.0 0.0
0.0 0.0 0.0
0.0 0.0 0.0
0.0 0.0 0.0
0.0 0.0 0.0
0.0 0.0 0.0
0.0 0.0 0.0
0.0 0.0 0.0
0.0 0.0 0.0
0.0 0.0 0.0
0.0 0.0 0.0
0.0 0.0 0.0
0.0 0.0 0.0
0.0 0.0 0.0
0.0 0.0 0.0
0.0 0.0 0.0
0.0 0.0 0.0
0.0 0.0 0.0
0.0 0.0 0.0
0.0 0.0 0.0
0.0 0.0 0.0
0.0 0.0 0.0
0.0 0.0 0.0
0.0 0.0 0.0
0.0 0.0 0.0
0.0 0.0 0.0
0.0 0.0 0.0
0.0 0.0 0.0
0.0 0.0 0.0
0.0 0.0 0.0
0.0 0.0 0.0
0.0 0.0 0.0
0.0 0.0 0.0
0.0 0.0 0.0
0.0 0.0 0.0
0.0 0.0 0.0
0.0 0.0 0.0
0.0 0.0 0.0
0.0 0.0 0.0
0.0 0.0 0.0
0.0 0.0 0.0
0.0 0.0 0.0
0.0 0.0 0.0
0.0 0.0 0.0
