# vtk DataFile Version 2.0
Header
ASCII
DATASET UNSTRUCTURED_GRID
POINTS 4357 float
-0.42555E+00  -0.50249E-01   0.47055E+00
-0.42612E+00  -0.55660E-01   0.52026E+00
-0.42232E+00  -0.61070E-01   0.56997E+00
-0.41185E+00  -0.66292E-01   0.61865E+00
-0.39814E+00  -0.71383E-01   0.66647E+00
-0.37882E+00  -0.76206E-01   0.71250E+00
-0.35463E+00  -0.80879E-01   0.75603E+00
-0.32758E+00  -0.85410E-01   0.79793E+00
-0.29511E+00  -0.89409E-01   0.83593E+00
-0.25951E+00  -0.93196E-01   0.87081E+00
-0.22135E+00  -0.96810E-01   0.90314E+00
-0.17865E+00  -0.99626E-01   0.92926E+00
-0.13447E+00  -0.10211E+00   0.95254E+00
-0.88204E-01  -0.10411E+00   0.97178E+00
-0.39830E-01  -0.10545E+00   0.98454E+00
 0.92774E-02  -0.10645E+00   0.99409E+00
 0.59260E-01  -0.10685E+00   0.99809E+00
 0.10924E+00  -0.10671E+00   0.99669E+00
 0.15911E+00  -0.10623E+00   0.99195E+00
 0.20792E+00  -0.10503E+00   0.98051E+00
 0.25539E+00  -0.10340E+00   0.96499E+00
 0.30168E+00  -0.10140E+00   0.94580E+00
 0.34461E+00  -0.98640E-01   0.92010E+00
 0.38565E+00  -0.95531E-01   0.89170E+00
 0.42381E+00  -0.91917E-01   0.85937E+00
 0.45740E+00  -0.87994E-01   0.82248E+00
 0.48846E+00  -0.83857E-01   0.78347E+00
 0.51472E+00  -0.79248E-01   0.74100E+00
 0.53645E+00  -0.74499E-01   0.69621E+00
 0.55513E+00  -0.69646E-01   0.64999E+00
 0.56676E+00  -0.64456E-01   0.60148E+00
 0.57453E+00  -0.59156E-01   0.55238E+00
 0.57847E+00  -0.53747E-01   0.50269E+00
 0.57510E+00  -0.48337E-01   0.45299E+00
 0.56843E+00  -0.43067E-01   0.40372E+00
 0.55676E+00  -0.38056E-01   0.35521E+00
 0.53919E+00  -0.33050E-01   0.30863E+00
 0.51853E+00  -0.28126E-01   0.26331E+00
 0.49227E+00  -0.23518E-01   0.22084E+00
 0.46210E+00  -0.19293E-01   0.18118E+00
 0.42934E+00  -0.15324E-01   0.14347E+00
 0.39117E+00  -0.11909E-01   0.11113E+00
 0.35083E+00  -0.87900E-02   0.81750E-01
 0.30817E+00  -0.59906E-02   0.55555E-01
 0.26217E+00  -0.39112E-02   0.35841E-01
 0.21503E+00  -0.21047E-02   0.19243E-01
 0.16627E+00  -0.70009E-03   0.76149E-02
 0.11658E+00  -0.53421E-04   0.18868E-02
 0.66580E-01   0.20361E-03  -0.56034E-03
 0.16582E-01  -0.19622E-03   0.32464E-02
-0.32673E-01  -0.11995E-02   0.11749E-01
-0.81377E-01  -0.26153E-02   0.23532E-01
-0.12771E+00  -0.46229E-02   0.42602E-01
-0.17240E+00  -0.69866E-02   0.64875E-01
-0.21510E+00  -0.97792E-02   0.91008E-01
-0.25385E+00  -0.13115E-01   0.12255E+00
-0.29030E+00  -0.16706E-01   0.15660E+00
-0.32278E+00  -0.20705E-01   0.19460E+00
-0.35074E+00  -0.25146E-01   0.23584E+00
-0.37595E+00  -0.29813E-01   0.27885E+00
-0.39519E+00  -0.34817E-01   0.32488E+00
-0.41009E+00  -0.39825E-01   0.37234E+00
-0.42176E+00  -0.44837E-01   0.42085E+00
 0.41561E+01   0.12172E+02  -0.12463E+02
 0.38030E+01   0.11319E+02  -0.12051E+02
 0.32182E+01   0.10575E+02  -0.11691E+02
 0.24622E+01   0.99713E+01  -0.11399E+02
 0.15628E+01   0.95539E+01  -0.11198E+02
 0.58143E+00   0.93364E+01  -0.11093E+02
-0.43034E+00   0.93364E+01  -0.11093E+02
-0.14117E+01   0.95538E+01  -0.11198E+02
-0.23111E+01   0.99712E+01  -0.11399E+02
-0.30672E+01   0.10575E+02  -0.11691E+02
-0.36521E+01   0.11319E+02  -0.12050E+02
-0.40053E+01   0.12172E+02  -0.12463E+02
-0.41411E+01   0.13075E+02  -0.12899E+02
-0.40053E+01   0.13978E+02  -0.13336E+02
-0.36521E+01   0.14831E+02  -0.13748E+02
-0.30673E+01   0.15574E+02  -0.14107E+02
-0.23113E+01   0.16178E+02  -0.14399E+02
-0.14120E+01   0.16596E+02  -0.14601E+02
-0.43059E+00   0.16813E+02  -0.14706E+02
 0.58117E+00   0.16813E+02  -0.14706E+02
 0.15626E+01   0.16596E+02  -0.14601E+02
 0.24619E+01   0.16178E+02  -0.14399E+02
 0.32180E+01   0.15575E+02  -0.14107E+02
 0.38028E+01   0.14831E+02  -0.13748E+02
 0.41561E+01   0.13978E+02  -0.13336E+02
 0.42921E+01   0.13075E+02  -0.12899E+02
 0.90453E+00   0.15995E+02  -0.14310E+02
-0.76063E+00   0.16117E+02  -0.14370E+02
-0.70683E+00   0.10193E+02  -0.11507E+02
 0.82687E+00   0.10154E+02  -0.11488E+02
-0.22822E+01   0.15451E+02  -0.14048E+02
-0.22816E+01   0.10681E+02  -0.11742E+02
 0.22531E+01   0.15266E+02  -0.13958E+02
 0.22333E+01   0.10842E+02  -0.11820E+02
 0.32121E+01   0.14172E+02  -0.13429E+02
-0.29861E+01   0.14126E+02  -0.13407E+02
-0.30020E+01   0.12026E+02  -0.12392E+02
 0.30889E+01   0.12065E+02  -0.12411E+02
 0.50706E-01   0.16087E+02  -0.14355E+02
 0.65756E-01   0.99798E+01  -0.11403E+02
 0.30100E+01   0.14872E+02  -0.13768E+02
 0.29638E+01   0.11273E+02  -0.12029E+02
-0.15360E+01   0.10411E+02  -0.11612E+02
-0.26999E+01   0.11279E+02  -0.12031E+02
-0.26704E+01   0.14804E+02  -0.13735E+02
 0.16398E+01   0.10300E+02  -0.11558E+02
-0.14471E+01   0.15665E+02  -0.14151E+02
 0.17011E+01   0.15852E+02  -0.14241E+02
-0.31696E+01   0.12755E+02  -0.12745E+02
-0.33427E+01   0.13464E+02  -0.13087E+02
 0.34763E+01   0.12727E+02  -0.12731E+02
 0.33400E+01   0.13449E+02  -0.13080E+02
 0.38274E+00   0.15315E+02  -0.13982E+02
-0.50961E+00   0.15412E+02  -0.14028E+02
 0.12774E+01   0.15222E+02  -0.13937E+02
 0.76016E+00   0.14553E+02  -0.13614E+02
-0.17227E+00   0.14648E+02  -0.13660E+02
-0.10831E+01   0.14783E+02  -0.13725E+02
 0.16765E+01   0.14498E+02  -0.13587E+02
-0.78031E+00   0.13990E+02  -0.13342E+02
 0.12080E+01   0.13800E+02  -0.13250E+02
 0.22530E+00   0.13878E+02  -0.13287E+02
 0.22691E+01   0.13723E+02  -0.13212E+02
-0.18736E+01   0.14144E+02  -0.13416E+02
 0.65944E+00   0.13111E+02  -0.12917E+02
 0.16375E+01   0.13042E+02  -0.12883E+02
-0.13826E+01   0.13307E+02  -0.13012E+02
 0.24618E+01   0.14486E+02  -0.13581E+02
-0.18530E+01   0.14945E+02  -0.13803E+02
-0.34121E+00   0.13200E+02  -0.12960E+02
-0.24076E+01   0.13396E+02  -0.13054E+02
 0.25956E+01   0.12899E+02  -0.12814E+02
 0.12687E+00   0.12417E+02  -0.12581E+02
-0.20302E+01   0.12590E+02  -0.12665E+02
 0.20429E+01   0.12290E+02  -0.12520E+02
-0.89704E+00   0.12515E+02  -0.12629E+02
 0.10852E+01   0.12348E+02  -0.12548E+02
-0.38298E+00   0.11712E+02  -0.12240E+02
 0.56007E+00   0.11639E+02  -0.12205E+02
 0.15122E+01   0.11592E+02  -0.12183E+02
-0.13286E+01   0.11828E+02  -0.12297E+02
 0.10500E+01   0.10934E+02  -0.11865E+02
-0.91479E+00   0.11030E+02  -0.11911E+02
 0.66240E-01   0.10837E+02  -0.11818E+02
-0.17921E+01   0.11179E+02  -0.11983E+02
-0.21783E+01   0.11811E+02  -0.12289E+02
 0.23498E+01   0.11619E+02  -0.12195E+02
 0.21996E+00  -0.10015E+00   0.93416E+00
-0.24929E+00  -0.88781E-01   0.82996E+00
-0.13629E+00  -0.93824E-02   0.87294E-01
-0.36865E+00  -0.38810E-01   0.36251E+00
 0.53492E+00  -0.60900E-01   0.56840E+00
-0.45524E-02  -0.47818E-02   0.44111E-01
 0.34760E+00  -0.13284E-01   0.12416E+00
 0.34565E+00  -0.93530E-01   0.87379E+00
 0.85890E-01  -0.10304E+00   0.96147E+00
-0.38917E+00  -0.53304E-01   0.49861E+00
 0.53507E+00  -0.45932E-01   0.43091E+00
-0.13702E+00  -0.97536E-01   0.90985E+00
 0.49357E+00  -0.74864E-01   0.69969E+00
 0.44602E+00  -0.23497E-01   0.22065E+00
-0.24844E+00  -0.17847E-01   0.16744E+00
 0.22415E+00  -0.66233E-02   0.61475E-01
-0.36934E+00  -0.68034E-01   0.63493E+00
-0.33235E+00  -0.76954E-01   0.71963E+00
 0.13408E+00  -0.43760E-02   0.40257E-01
-0.30840E+00  -0.25419E-01   0.23836E+00
 0.51278E+00  -0.36640E-01   0.34165E+00
-0.59938E-02  -0.10224E+00   0.95381E+00
 0.44555E+00  -0.83289E-01   0.77824E+00
 0.41580E+00  -0.87086E-01   0.81386E+00
 0.49452E+00  -0.32016E-01   0.29912E+00
-0.51443E-01  -0.10119E+00   0.94379E+00
 0.87688E-01  -0.40517E-02   0.37176E-01
-0.38039E+00  -0.63231E-01   0.59004E+00
-0.33251E+00  -0.29664E-01   0.27748E+00
-0.21398E+00  -0.14647E-01   0.13706E+00
-0.30877E+00  -0.81217E-01   0.75915E+00
 0.26741E+00  -0.83499E-02   0.77633E-01
 0.13165E+00  -0.10282E+00   0.95939E+00
 0.51175E+00  -0.70434E-01   0.65742E+00
 0.54009E+00  -0.50954E-01   0.47703E+00
 0.41670E+00  -0.19661E-01   0.18468E+00
 0.30567E+00  -0.96282E-01   0.89842E+00
-0.50182E-01  -0.57787E-02   0.53572E-01
-0.17758E+00  -0.95030E-01   0.88721E+00
 0.30868E+00  -0.10560E-01   0.98361E-01
 0.41496E-01  -0.42265E-02   0.38837E-01
 0.38230E+00  -0.90442E-01   0.84574E+00
 0.26368E+00  -0.98449E-01   0.91833E+00
 0.52623E+00  -0.41220E-01   0.38584E+00
-0.38030E+00  -0.43391E-01   0.40685E+00
-0.38748E+00  -0.48258E-01   0.45227E+00
-0.35309E+00  -0.72650E-01   0.67856E+00
-0.35303E+00  -0.34156E-01   0.31880E+00
-0.21491E+00  -0.92023E-01   0.86032E+00
 0.38359E+00  -0.16274E-01   0.15250E+00
-0.95214E-01  -0.99583E-01   0.92886E+00
-0.38667E+00  -0.58302E-01   0.54453E+00
-0.28135E+00  -0.85219E-01   0.79611E+00
 0.47148E+00  -0.79185E-01   0.74042E+00
 0.17700E+00  -0.10178E+00   0.94946E+00
-0.28061E+00  -0.21402E-01   0.20122E+00
 0.47192E+00  -0.27655E-01   0.25897E+00
 0.39653E-01  -0.10286E+00   0.95978E+00
 0.17986E+00  -0.52432E-02   0.48494E-01
 0.52566E+00  -0.65778E-01   0.61384E+00
-0.94258E-01  -0.73437E-02   0.68217E-01
 0.53986E+00  -0.55943E-01   0.52286E+00
-0.17673E+00  -0.11796E-01   0.11006E+00
 0.18381E+00  -0.96749E-01   0.90259E+00
 0.22830E+00  -0.95041E-01   0.88731E+00
 0.26845E+00  -0.93448E-01   0.87306E+00
 0.30849E+00  -0.91307E-01   0.85391E+00
 0.34305E+00  -0.88628E-01   0.82851E+00
 0.37571E+00  -0.85882E-01   0.80241E+00
 0.40503E+00  -0.82492E-01   0.77089E+00
 0.42895E+00  -0.78734E-01   0.73626E+00
 0.38541E+00  -0.78082E-01   0.73025E+00
 0.45180E+00  -0.75000E-01   0.70099E+00
 0.36782E+00  -0.81720E-01   0.76377E+00
 0.46937E+00  -0.70815E-01   0.66106E+00
 0.48355E+00  -0.66766E-01   0.62307E+00
 0.43167E+00  -0.71372E-01   0.66638E+00
 0.40845E+00  -0.74516E-01   0.69637E+00
 0.43393E+00  -0.66895E-01   0.62428E+00
 0.49606E+00  -0.62309E-01   0.58142E+00
 0.46006E+00  -0.63465E-01   0.59222E+00
 0.50088E+00  -0.57718E-01   0.53917E+00
 0.50425E+00  -0.53215E-01   0.49780E+00
 0.46195E+00  -0.59342E-01   0.55409E+00
 0.46426E+00  -0.54909E-01   0.51336E+00
 0.50187E+00  -0.48545E-01   0.45490E+00
 0.47102E+00  -0.50948E-01   0.47697E+00
 0.49375E+00  -0.44076E-01   0.41348E+00
 0.45995E+00  -0.46978E-01   0.44051E+00
 0.48528E+00  -0.39830E-01   0.37238E+00
 0.45235E+00  -0.42708E-01   0.40024E+00
[...]
CELL_DATA 19450
VECTORS vel float
-0.46105E-03   0.10004E+01   0.25629E-03
-0.73785E-03   0.10002E+01   0.46795E-03
 0.10691E-02   0.99985E+00   0.20554E-02
 0.19772E-02   0.10002E+01   0.44151E-02
 0.17063E-02   0.10006E+01   0.25768E-02
 0.10647E-02   0.10002E+01   0.15497E-02
-0.15345E-02   0.10012E+01   0.11872E-01
-0.18148E-02   0.10017E+01   0.12913E-01
-0.25305E-02   0.10024E+01   0.12445E-01
-0.19869E-02   0.99756E+00   0.11863E-01
 0.23234E-02   0.99927E+00   0.20945E-02
 0.26504E-02   0.99956E+00   0.53976E-02
 0.91044E-02   0.10005E+01   0.11296E-01
-0.26590E-02   0.10009E+01   0.73766E-02
 0.90136E-02   0.99934E+00   0.16111E-01
 0.23926E-02   0.99961E+00   0.35268E-02
 0.73351E-02   0.99955E+00   0.15953E-01
-0.10742E-03   0.10000E+01  -0.22826E-03
-0.39679E-02   0.99897E+00   0.60650E-02
 0.27488E-02   0.10001E+01   0.41883E-02
-0.17435E-02   0.99870E+00   0.96643E-02
-0.11286E-01   0.99870E+00   0.13879E-01
-0.35800E-02   0.99789E+00   0.56733E-02
 0.20967E-02   0.99948E+00   0.20538E-02
 0.36501E-02   0.99886E+00   0.11095E-01
 0.19730E-02   0.99954E+00   0.10651E-02
-0.74108E-02   0.10045E+01   0.87382E-02
 0.36864E-02   0.99942E+00   0.30199E-02
 0.27554E-02   0.99954E+00   0.17689E-02
 0.30968E-02   0.10033E+01   0.92161E-02
-0.42452E-03   0.10003E+01   0.35391E-03
 0.18425E-02   0.10012E+01   0.11642E-02
 0.55888E-03   0.10016E+01   0.11783E-01
 0.79684E-02   0.10028E+01   0.13445E-01
-0.54763E-02   0.99827E+00   0.59463E-02
 0.91500E-02   0.99934E+00   0.63965E-02
 0.33943E-02   0.99801E+00   0.80762E-02
 0.69197E-02   0.10005E+01   0.25982E-02
 0.64103E-03   0.99852E+00   0.58334E-02
-0.32893E-02   0.10008E+01   0.11798E-02
-0.31448E-03   0.99997E+00  -0.16235E-03
 0.24216E-02   0.10002E+01   0.47412E-02
 0.10112E-01   0.10030E+01   0.11410E-01
 0.34159E-02   0.99717E+00   0.11656E-01
-0.40390E-02   0.10005E+01   0.39825E-02
 0.21806E-02   0.99987E+00   0.54253E-02
 0.25426E-02   0.10031E+01   0.13590E-01
-0.59472E-02   0.10004E+01   0.23998E-02
 0.85678E-02   0.99926E+00   0.80976E-02
 0.10527E-02   0.10002E+01   0.55981E-02
 0.34589E-02   0.10000E+01   0.27142E-02
 0.41963E-02   0.99867E+00   0.50879E-02
 0.35532E-02   0.10013E+01   0.28313E-02
-0.45700E-02   0.99848E+00   0.17507E-02
 0.22865E-02   0.99987E+00   0.95761E-03
-0.17653E-02   0.10000E+01   0.88949E-03
-0.95609E-03   0.10001E+01   0.41354E-03
 0.19678E-05   0.10002E+01  -0.30358E-03
 0.31230E-02   0.10008E+01   0.16889E-01
-0.20087E-02   0.99684E+00   0.54077E-02
-0.39587E-02   0.10006E+01   0.51510E-02
-0.29044E-02   0.99987E+00   0.10765E-02
-0.43742E-02   0.99947E+00   0.38065E-02
 0.15547E-02   0.10006E+01   0.95328E-03
-0.64948E-03   0.10008E+01   0.48098E-02
 0.12803E-02   0.99991E+00   0.70516E-03
 0.15308E-02   0.10005E+01   0.24899E-02
 0.61548E-03   0.10001E+01  -0.17613E-04
-0.37924E-02   0.10004E+01   0.14567E-02
 0.94602E-03   0.10003E+01   0.24029E-03
 0.10176E-02   0.10001E+01   0.26051E-03
 0.12717E-02   0.99852E+00   0.54040E-02
 0.32883E-02   0.99915E+00   0.49678E-02
-0.18690E-02   0.99958E+00   0.62640E-03
-0.25207E-02   0.10010E+01   0.33772E-02
 0.40201E-02   0.99933E+00   0.62522E-02
-0.34437E-02   0.99901E+00   0.22707E-02
-0.82408E-04   0.10001E+01   0.33126E-03
-0.37915E-02   0.99929E+00   0.17440E-02
-0.40963E-02   0.10004E+01   0.45772E-02
-0.24374E-02   0.99991E+00   0.82978E-02
-0.13296E-02   0.10003E+01   0.84834E-03
 0.17233E-02   0.99973E+00   0.31979E-02
 0.13009E-02   0.99939E+00   0.38361E-02
 0.18245E-03   0.99995E+00   0.71020E-03
 0.31645E-02   0.99933E+00   0.28341E-02
 0.12621E-02   0.99961E+00   0.20343E-02
-0.10394E-02   0.99963E+00   0.27043E-02
 0.16064E-02   0.10003E+01   0.49264E-02
-0.13257E-02   0.99995E+00   0.62006E-04
-0.23281E-02   0.99921E+00   0.44470E-02
-0.45960E-03   0.99992E+00   0.73803E-03
-0.79800E-04   0.10002E+01  -0.13269E-03
 0.23825E-02   0.10011E+01   0.34614E-02
 0.99755E-03   0.10005E+01   0.14591E-02
-0.21106E-04   0.99959E+00   0.27920E-02
-0.71851E-02   0.99845E+00   0.90286E-02
-0.26874E-03   0.99999E+00   0.36207E-03
 0.13603E-02   0.99987E+00   0.24856E-02
 0.53750E-02   0.10004E+01   0.25215E-02
-0.25065E-02   0.99951E+00   0.65074E-02
-0.20378E-02   0.99853E+00   0.77037E-02
-0.32083E-03   0.99999E+00  -0.15242E-03
 0.57586E-02   0.10010E+01   0.98787E-02
 0.47791E-02   0.99850E+00   0.10026E-01
 0.25967E-02   0.10006E+01   0.16851E-02
-0.32187E-02   0.10001E+01   0.40467E-02
 0.70397E-03   0.99935E+00   0.81738E-02
-0.43517E-03   0.99967E+00   0.16808E-02
 0.85363E-02   0.99937E+00   0.14039E-01
 0.43489E-02   0.99755E+00   0.79789E-02
 0.37735E-02   0.10001E+01   0.81989E-03
 0.43224E-02   0.99870E+00   0.68562E-02
-0.28529E-02   0.10024E+01   0.83295E-02
 0.12873E-02   0.99947E+00   0.52273E-02
-0.51560E-03   0.10000E+01   0.29818E-04
 0.28854E-02   0.99929E+00   0.75321E-02
-0.36943E-02   0.99747E+00   0.49630E-02
 0.39657E-02   0.99775E+00   0.64223E-02
-0.36918E-02   0.10002E+01   0.19586E-02
 0.60523E-04   0.10001E+01   0.18528E-03
-0.30517E-03   0.99951E+00   0.30498E-02
 0.22471E-02   0.10005E+01   0.11814E-02
-0.28407E-02   0.99984E+00   0.22954E-02
-0.48160E-02   0.99987E+00   0.56742E-02
 0.33328E-02   0.99921E+00   0.18953E-02
-0.23637E-03   0.99988E+00   0.47303E-03
-0.60847E-03   0.10002E+01   0.59813E-03
-0.15139E-02   0.99786E+00   0.10898E-01
-0.37311E-02   0.10004E+01   0.11800E-01
-0.53979E-02   0.99926E+00   0.72817E-02
 0.51430E-02   0.99793E+00   0.46264E-02
 0.38513E-03   0.99943E+00   0.58783E-02
-0.50353E-02   0.99454E+00   0.67008E-02
-0.21214E-02   0.10006E+01   0.57913E-02
 0.10669E-02   0.99975E+00   0.12356E-02
 0.57466E-03   0.10008E+01   0.80463E-02
 0.59457E-02   0.99815E+00   0.43964E-02
 0.45655E-02   0.99773E+00   0.83069E-02
 0.66031E-04   0.99969E+00   0.22142E-02
-0.32532E-02   0.10003E+01   0.17077E-02
-0.36418E-02   0.10011E+01   0.65777E-02
 0.16181E-02   0.10006E+01   0.15046E-02
-0.93940E-04   0.10001E+01  -0.22427E-03
-0.19225E-02   0.99979E+00   0.16197E-02
 0.21734E-02   0.99980E+00   0.11756E-02
 0.91119E-04   0.10004E+01   0.39861E-02
 0.79939E-03   0.99985E+00   0.10552E-02
 0.19829E-02   0.10002E+01   0.57228E-02
-0.46109E-02   0.10014E+01   0.18633E-01
 0.17995E-02   0.99988E+00   0.95011E-03
-0.37533E-02   0.99851E+00   0.25968E-02
 0.22503E-02   0.99824E+00   0.10027E-01
-0.26320E-02   0.99906E+00   0.10307E-01
-0.98494E-03   0.10046E+01   0.91370E-02
 0.34341E-03   0.99970E+00   0.17188E-02
-0.83799E-03   0.99990E+00   0.87618E-04
-0.35646E-02   0.10003E+01   0.31808E-02
-0.35917E-02   0.10014E+01   0.19635E-01
-0.47747E-02   0.99824E+00   0.16345E-01
 0.16660E-02   0.99950E+00   0.46029E-02
 0.83851E-02   0.10000E+01   0.10832E-01
 0.17988E-02   0.10003E+01   0.40710E-02
 0.18159E-02   0.10003E+01   0.28397E-02
-0.14989E-03   0.10001E+01   0.25356E-03
-0.53957E-02   0.99988E+00   0.15278E-01
-0.21188E-02   0.10006E+01   0.29908E-02
 0.20239E-02   0.10004E+01   0.51247E-03
 0.25383E-02   0.99983E+00   0.86464E-03
 0.15852E-02   0.99920E+00   0.44932E-02
 0.21350E-02   0.99978E+00   0.58701E-02
 0.24133E-03   0.10027E+01   0.87619E-02
 0.24253E-02   0.99889E+00   0.11670E-02
 0.14800E-02   0.99974E+00   0.38985E-02
 0.26352E-02   0.10009E+01   0.29086E-02
-0.52141E-02   0.10016E+01   0.12370E-01
 0.20243E-02   0.99910E+00   0.20171E-02
 0.26773E-03   0.10001E+01   0.39972E-02
 0.19385E-02   0.99895E+00   0.26477E-02
 0.25520E-02   0.99864E+00   0.25391E-02
-0.53033E-02   0.99913E+00   0.10148E-01
 0.13936E-03   0.99930E+00   0.47881E-02
-0.37612E-02   0.10001E+01   0.20109E-02
 0.11854E-03   0.99962E+00   0.16090E-02
 0.55675E-03   0.99986E+00   0.78711E-03
 0.87551E-02   0.10026E+01   0.14027E-01
 0.95419E-03   0.99922E+00   0.56907E-02
 0.26770E-02   0.99997E+00   0.42952E-02
 0.18715E-02   0.99968E+00   0.16362E-02
 0.45566E-02   0.10002E+01   0.10724E-01
-0.50198E-03   0.99906E+00   0.76073E-02
-0.24279E-02   0.10018E+01   0.39648E-02
 0.13780E-02   0.10000E+01   0.22851E-02
 0.39833E-02   0.10005E+01   0.43803E-02
 0.52125E-02   0.99995E+00   0.37491E-02
 0.88621E-02   0.99989E+00   0.93532E-02
-0.11291E-01   0.10030E+01   0.20265E-01
-0.39017E-02   0.10020E+01   0.10873E-01
 0.46480E-03   0.99964E+00   0.17216E-02
-0.36347E-02   0.10003E+01   0.37969E-02
-0.31810E-02   0.10004E+01   0.21819E-02
 0.14684E-02   0.99998E+00   0.16648E-01
 0.29493E-02   0.99963E+00   0.11235E-02
 0.23601E-02   0.99950E+00   0.40900E-02
-0.33113E-02   0.99943E+00   0.19715E-02
 0.74960E-02   0.10047E+01   0.29027E-01
 0.38450E-02   0.10117E+01   0.12141E-01
-0.45930E-02   0.10010E+01   0.83394E-02
 0.50777E-02   0.99893E+00   0.10464E-01
-0.32943E-03   0.99967E+00   0.14778E-02
 0.68316E-02   0.10013E+01   0.57197E-02
 0.14571E-02   0.99953E+00   0.19525E-02
-0.73904E-03   0.99961E+00   0.15302E-02
 0.54781E-02   0.10005E+01   0.28486E-02
 0.23425E-02   0.10004E+01   0.19860E-02
-0.65087E-02   0.99867E+00   0.64888E-02
-0.63967E-02   0.10005E+01   0.74357E-02
 0.26456E-02   0.99915E+00   0.38326E-02
 0.17189E-02   0.99972E+00   0.67498E-03
-0.17836E-03   0.10000E+01   0.50546E-03
-0.17673E-02   0.99959E+00   0.17072E-02
-0.30733E-02   0.99956E+00   0.31572E-02
-0.40504E-02   0.10009E+01   0.43918E-02
 0.58642E-03   0.10001E+01   0.46104E-02
 0.14223E-02   0.10012E+01   0.30935E-02
 0.11925E-02   0.10001E+01   0.19417E-02
 0.30140E-02   0.10001E+01   0.22172E-02
 0.20870E-02   0.10007E+01   0.17977E-02
 0.15694E-02   0.99909E+00   0.12254E-02
 0.65278E-03   0.10002E+01  -0.32766E-03
 0.47528E-03   0.10003E+01   0.14457E-03
 0.32976E-02   0.99779E+00   0.90110E-02
-0.26200E-02   0.10000E+01   0.59053E-02
 0.43194E-02   0.99414E+00   0.77860E-02
-0.90699E-02   0.10041E+01   0.14318E-01
-0.26842E-02   0.10030E+01   0.11974E-01
-0.63479E-02   0.10001E+01   0.65140E-02
 0.89661E-02   0.99946E+00   0.10701E-01
 0.13313E-03   0.99990E+00   0.16153E-01
-0.56923E-02   0.99998E+00   0.18537E-01
 0.78199E-02   0.99919E+00   0.98904E-02
 0.29627E-02   0.10007E+01   0.24592E-02
-0.36183E-02   0.10015E+01   0.17096E-02
-0.32087E-02   0.10005E+01   0.23269E-02
 0.45279E-02   0.10011E+01   0.37358E-02
 0.44505E-02   0.99527E+00   0.45494E-02
 0.71935E-02   0.10002E+01   0.10736E-01
 0.11675E-02   0.99944E+00   0.49823E-02
-0.39495E-02   0.99997E+00   0.30026E-02
 0.20718E-02   0.10003E+01   0.39163E-03
 0.13736E-02   0.10001E+01   0.67903E-03
-0.71938E-02   0.99923E+00   0.80705E-02
 0.26128E-04   0.10001E+01  -0.13450E-03
 0.24261E-02   0.99884E+00   0.22930E-02
 0.82105E-02   0.99983E+00   0.67091E-02
-0.23131E-02   0.99967E+00   0.23378E-02
 0.72290E-02   0.99992E+00   0.44746E-02
 0.35797E-02   0.99799E+00   0.25255E-02
-0.35887E-02   0.99983E+00   0.13148E-02
-0.27385E-02   0.99977E+00   0.11240E-02
 0.88724E-03   0.99988E+00   0.28927E-03
 0.17962E-02   0.99970E+00   0.54815E-02
-0.51172E-02   0.10002E+01   0.28900E-02
 0.10292E-01   0.10030E+01   0.19728E-01
 0.68067E-02   0.99926E+00   0.62094E-02
-0.54338E-03   0.10000E+01   0.37457E-02
 0.11622E-02   0.99642E+00   0.15509E-01
 0.35734E-02   0.99037E+00   0.15458E-01
 0.24915E-02   0.10002E+01   0.94566E-03
 0.22791E-02   0.99999E+00   0.12542E-02
 0.50259E-03   0.10002E+01   0.97020E-03
 0.15810E-02   0.10001E+01   0.51884E-02
 0.12500E-02   0.99983E+00   0.18254E-02
 0.24774E-02   0.99903E+00   0.26424E-02
-0.39929E-02   0.99805E+00   0.48340E-02
-0.22023E-02   0.10003E+01   0.59038E-03
-0.18068E-02   0.99983E+00   0.33511E-03
 0.17856E-02   0.99929E+00   0.35546E-02
 0.64413E-04   0.99958E+00   0.27001E-02
-0.19328E-02   0.10001E+01   0.66169E-03
-0.56883E-02   0.99864E+00   0.60978E-02
-0.34171E-02   0.10003E+01   0.39479E-02
 0.17457E-02   0.99940E+00   0.40005E-02
 0.11329E-01   0.10019E+01   0.14130E-01
 0.19678E-03   0.10004E+01   0.16615E-03
-0.17855E-02   0.99986E+00   0.47267E-03
 0.10891E-02   0.99203E+00   0.96373E-02
-0.36858E-02   0.99949E+00   0.47607E-02
 0.16984E-02   0.99973E+00   0.97722E-03
 0.14867E-02   0.99937E+00   0.17934E-02
 0.21052E-02   0.99946E+00   0.11982E-02
 0.39273E-02   0.99772E+00   0.27879E-02
 0.49602E-02   0.10009E+01   0.34835E-02
 0.82565E-02   0.99908E+00   0.14590E-01
 0.12490E-02   0.99926E+00   0.53122E-02
-0.18877E-02   0.99942E+00   0.11224E-02
 0.41919E-02   0.10012E+01   0.22026E-02
 0.20869E-02   0.99986E+00   0.73488E-02
 0.67807E-02   0.10056E+01   0.20284E-01
 0.20048E-02   0.99971E+00   0.70624E-03
 0.14948E-02   0.99960E+00   0.45551E-02
 0.77616E-03   0.99999E+00   0.66135E-02
-0.26925E-02   0.99954E+00   0.18259E-02
-0.13722E-02   0.10003E+01   0.15369E-02
 0.74124E-02   0.10003E+01   0.30650E-02
-0.19424E-03   0.10000E+01  -0.10377E-03
-0.87738E-02   0.10009E+01   0.84546E-02
 0.16553E-02   0.99991E+00   0.11709E-02
 0.75364E-02   0.99959E+00   0.86947E-02
-0.30786E-02   0.99985E+00   0.34721E-02
-0.10810E-02   0.99993E+00   0.19504E-03
-0.16193E-02   0.99969E+00   0.84891E-03
-0.19390E-02   0.99994E+00   0.73284E-03
-0.28348E-02   0.10013E+01   0.34437E-02
 0.35784E-03   0.99905E+00   0.35003E-02
 0.40032E-03   0.99916E+00   0.41511E-02
-0.38170E-03   0.10000E+01  -0.14065E-04
-0.87414E-03   0.10005E+01   0.34489E-04
-0.90479E-03   0.10004E+01   0.39970E-03
 0.33958E-02   0.99975E+00   0.13613E-02
-0.73901E-03   0.10001E+01  -0.29184E-04
 0.14839E-03   0.10003E+01  -0.22176E-03
 0.13750E-02   0.99970E+00   0.46493E-02
 0.35305E-02   0.10016E+01   0.21090E-02
 0.92253E-03   0.99995E+00   0.36200E-02
-0.75127E-02   0.99955E+00   0.58939E-02
 0.41765E-03   0.10001E+01  -0.32665E-06
 0.93813E-03   0.99967E+00   0.21204E-03
-0.18146E-02   0.99969E+00   0.93917E-03
-0.73399E-03   0.10006E+01   0.23397E-02
-0.11482E-01   0.99888E+00   0.25401E-01
-0.50409E-02   0.99909E+00   0.13355E-01
 0.16213E-02   0.10001E+01   0.22460E-02
-0.10295E-01   0.10050E+01   0.16447E-01
 0.74615E-02   0.99946E+00   0.17292E-01
 0.24130E-02   0.10002E+01   0.81621E-03
-0.14848E-02   0.10002E+01   0.26740E-03
-0.33064E-02   0.10047E+01   0.17668E-01
 0.26827E-03   0.99892E+00   0.56710E-02
-0.66209E-03   0.99867E+00   0.40024E-02
 0.30350E-02   0.10002E+01   0.11488E-02
 0.44510E-02   0.10004E+01   0.47172E-02
 0.17777E-02   0.10002E+01   0.99980E-03
 0.10844E-02   0.99998E+00   0.24147E-02
-0.20541E-02   0.99967E+00   0.10631E-02
 0.71981E-03   0.99981E+00   0.46879E-03
 0.16445E-01   0.10016E+01   0.23861E-01
 0.30089E-02   0.99886E+00   0.10184E-02
-0.28569E-03   0.99968E+00   0.20560E-02
 0.16515E-02   0.99933E+00   0.29339E-02
-0.21539E-02   0.99886E+00   0.32494E-02
-0.34855E-02   0.99955E+00   0.44569E-02
-0.74529E-02   0.10013E+01   0.81735E-02
 0.12708E-01   0.99991E+00   0.11468E-01
 0.94461E-02   0.99582E+00   0.17474E-01
 0.21907E-02   0.99985E+00   0.77325E-03
 0.37908E-02   0.10016E+01   0.26316E-02
-0.17112E-01   0.99860E+00   0.24375E-01
 0.24148E-02   0.99951E+00   0.10292E-02
 0.15916E-02   0.10000E+01   0.24617E-02
 0.14182E-02   0.99960E+00   0.14644E-02
 0.82758E-03   0.10002E+01   0.53092E-03
 0.73303E-03   0.99925E+00   0.46930E-02
 0.11700E-03   0.99713E+00   0.93077E-02
-0.30794E-02   0.99993E+00   0.46572E-02
 0.47451E-02   0.99886E+00   0.21601E-02
 0.11697E-02   0.99911E+00   0.52498E-02
 0.20382E-02   0.10025E+01   0.11828E-01
-0.19463E-02   0.10001E+01   0.58734E-02
 0.11153E-02   0.10002E+01   0.44925E-02
-0.76249E-02   0.99309E+00   0.20852E-01
-0.37154E-02   0.99864E+00   0.57325E-02
 0.22576E-02   0.99951E+00   0.16256E-02
-0.12639E-02   0.99154E+00   0.22056E-01
 0.99664E-02   0.99072E+00   0.21765E-01
 0.17383E-02   0.10006E+01   0.13784E-02
-0.10774E-02   0.99978E+00   0.30466E-02
 0.19231E-02   0.10091E+01   0.14699E-01
 0.34228E-04   0.10001E+01  -0.17857E-03
 0.19128E-02   0.99994E+00   0.14623E-02
 0.18903E-02   0.99888E+00   0.99819E-03
-0.23138E-02   0.10001E+01   0.78949E-03
 0.97914E-02   0.99847E+00   0.89672E-02
 0.11527E-02   0.99947E+00   0.19392E-02
 0.26794E-03   0.99983E+00   0.12423E-02
 0.80002E-03   0.10002E+01   0.48425E-02
 0.60996E-03   0.10000E+01   0.19478E-02
-0.16515E-02   0.99732E+00   0.24293E-01
 0.10662E-01   0.99796E+00   0.14582E-01
-0.28808E-02   0.10000E+01   0.19447E-02
-0.22661E-02   0.99982E+00   0.80643E-03
 0.83138E-02   0.10007E+01   0.64960E-02
 0.31527E-02   0.99746E+00   0.21796E-02
-0.30321E-03   0.10001E+01   0.26317E-02
-0.64386E-03   0.99945E+00   0.42179E-02
 0.11750E-02   0.99601E+00   0.10210E-01
-0.24129E-02   0.10005E+01   0.35615E-02
 0.85255E-03   0.99990E+00   0.40785E-03
 0.14415E-02   0.99940E+00   0.14423E-02
-0.42376E-02   0.10013E+01   0.13107E-02
-0.42230E-02   0.99942E+00   0.35405E-02
-0.11885E-01   0.99788E+00   0.15712E-01
-0.24475E-02   0.99946E+00   0.24246E-02
-0.32348E-02   0.99995E+00   0.72598E-02
 0.11130E-02   0.10002E+01   0.88761E-03
 0.87392E-03   0.99979E+00   0.18879E-02
 0.30503E-02   0.99960E+00   0.68743E-02
 0.44472E-03   0.99945E+00   0.17828E-01
 0.31037E-03   0.10000E+01   0.28124E-02
-0.20953E-02   0.10012E+01   0.98433E-03
-0.36243E-02   0.10003E+01   0.21006E-02
 0.10138E-02   0.10000E+01   0.41442E-03
-0.10284E-02   0.99972E+00   0.24010E-02
 0.13152E-02   0.99950E+00   0.46860E-03
-0.47989E-02   0.99795E+00   0.22229E-02
 0.82048E-02   0.99465E+00   0.24491E-01
-0.80893E-02   0.10028E+01   0.83266E-02
 0.73279E-02   0.99933E+00   0.63755E-02
 0.64287E-02   0.99942E+00   0.31958E-02
-0.49729E-03   0.10000E+01   0.27807E-02
-0.48805E-02   0.10007E+01   0.26417E-02
 0.62789E-03   0.99957E+00   0.35528E-02
 0.32944E-02   0.99879E+00   0.38387E-02
 0.76377E-03   0.99898E+00   0.39727E-02
 0.50138E-02   0.99881E+00   0.27195E-02
-0.37299E-02   0.99946E+00   0.38474E-02
 0.41399E-03   0.99989E+00  -0.30223E-04
 0.44719E-03   0.99943E+00   0.21637E-02
-0.28589E-02   0.10000E+01   0.19464E-02
-0.23837E-02   0.10002E+01   0.51156E-02
 0.89512E-03   0.99877E+00   0.39439E-02
 0.36317E-02   0.99906E+00   0.55169E-02
-0.24986E-02   0.10003E+01   0.51583E-02
-0.13552E-02   0.99974E+00   0.36125E-02
 0.30404E-02   0.10004E+01   0.18917E-02
-0.33843E-02   0.10004E+01   0.40969E-02
-0.77138E-02   0.99962E+00   0.97685E-02
 0.69717E-03   0.10003E+01   0.27248E-02
 0.15409E-02   0.10005E+01   0.10277E-02
 0.33457E-03   0.10006E+01   0.52839E-02
 0.12283E-02   0.10003E+01   0.13040E-02
 0.24088E-02   0.10016E+01   0.14679E-02
-0.14867E-03   0.99912E+00   0.42989E-02
-0.42449E-03   0.10001E+01  -0.11665E-03
 0.20735E-02   0.99941E+00   0.36188E-02
 0.78415E-03   0.10001E+01   0.31926E-02
-0.11245E-03   0.99895E+00   0.39265E-02
-0.21457E-02   0.99984E+00   0.81161E-03
 0.39372E-03   0.10001E+01   0.16695E-01
 0.22459E-03   0.99985E+00   0.31577E-02
-0.14798E-02   0.10000E+01   0.27092E-02
 0.34678E-02   0.99864E+00   0.41901E-02
 0.11859E-02   0.99956E+00   0.10861E-02
 0.30995E-02   0.99985E+00   0.37312E-02
-0.93004E-03   0.10000E+01   0.34659E-02
-0.24440E-03   0.99983E+00   0.29875E-02
 0.22287E-03   0.99907E+00   0.40678E-02
 0.24028E-03   0.10004E+01   0.26370E-02
 0.24376E-02   0.10006E+01   0.16633E-02
-0.18046E-02   0.99991E+00   0.46898E-02
 0.17815E-03   0.99979E+00   0.35958E-02
-0.76664E-03   0.10004E+01   0.34706E-02
-0.27604E-02   0.99966E+00   0.15672E-02
 0.18074E-02   0.10003E+01   0.12171E-02
 0.27948E-02   0.10006E+01   0.27417E-02
 0.33047E-02   0.99971E+00   0.23873E-02
 0.49492E-02   0.10000E+01   0.25233E-02
-0.25608E-02   0.99977E+00   0.47332E-02
 0.30461E-02   0.99954E+00   0.24720E-02
 0.34660E-03   0.10001E+01   0.14113E-02
 0.45077E-03   0.99980E+00   0.35433E-02
-0.18285E-02   0.99951E+00   0.44034E-02
-0.90694E-02   0.99451E+00   0.15457E-01
-0.11146E-02   0.99998E+00   0.35081E-02
-0.51947E-03   0.99995E+00   0.42729E-02
-0.20702E-02   0.99995E+00   0.43293E-02
 0.11508E-01   0.99389E+00   0.14571E-01
-0.34853E-02   0.10000E+01   0.55823E-02
 0.16212E-03   0.99966E+00   0.24343E-02
 0.26803E-02   0.99933E+00   0.39782E-02
 0.12454E-02   0.10001E+01   0.18436E-02
-0.13583E-03   0.99912E+00   0.19187E-02
-0.88567E-03   0.10000E+01   0.48617E-02
-0.16451E-03   0.10001E+01   0.18499E-03
-0.11744E-02   0.99970E+00   0.39034E-02
-0.12671E-02   0.99991E+00   0.34236E-02