# vtk DataFile Version 2.0
Header
ASCII
DATASET UNSTRUCTURED_GRID
POINTS 16 float
 0.89500E+00  -0.10000E+00  -0.10000E+00
 0.90500E+00  -0.10000E+00  -0.10000E+00
 0.89500E+00   0.10000E+00  -0.10000E+00
 0.90500E+00   0.10000E+00  -0.10000E+00
 0.89500E+00  -0.10000E+00   0.10000E+00
 0.90500E+00  -0.10000E+00   0.10000E+00
 0.89500E+00   0.10000E+00   0.10000E+00
 0.90500E+00   0.10000E+00   0.10000E+00
-0.50000E-01  -0.10000E+00  -0.15000E+00
 0.85000E+00  -0.10000E+00  -0.15000E+00
-0.50000E-01   0.10000E+00  -0.15000E+00
 0.85000E+00   0.10000E+00  -0.15000E+00
-0.50000E-01  -0.10000E+00  -0.50000E-01
 0.85000E+00  -0.10000E+00  -0.50000E-01
-0.50000E-01   0.10000E+00  -0.50000E-01
 0.85000E+00   0.10000E+00  -0.50000E-01

CELLS 2  18
8 0 1 2 3 4 5 6 7
8 8 9 10 11 12 13 14 15

CELL_TYPES 2
11
11

CELL_DATA 2
SCALARS RoI float
LOOKUP_TABLE default
 0.10000E+01
 0.10000E+01
